Title: * C:\Users\Wahaj Anwar\Downloads\Ltspice Supply Upwork\Project Upwork New\Part 1 Circuit.asc
Date: Wed Nov 22 23:44:44 2023
Plotname: Transient Analysis
Flags: real forward
No. Variables: 48
No. Points:            0
Offset:   0.0000000000000000e+000
Command: Linear Technology Corporation LTspice IV
Backannotation: u1 1 2 3 4 5
Backannotation: u2 1 2 3 4 5
Variables:
